GROtesk MACabre and Sinister
   96
    1SER      N    1  -0.053   0.136   0.000
    1SER     H1    2  -0.153   0.133   0.000
    1SER     H2    3  -0.021   0.184   0.082
    1SER     H3    4  -0.021   0.184  -0.082
    1SER     CA    5   0.000   0.000   0.000
    1SER     HA    6  -0.034  -0.041   0.085
    1SER     CB    7  -0.051  -0.077  -0.121
    1SER    HB1    8  -0.028  -0.029  -0.205
    1SER    HB2    9  -0.011  -0.169  -0.123
    1SER     OG   10  -0.192  -0.091  -0.116
    1SER     HG   11  -0.223  -0.143  -0.196
    1SER      C   12   0.152   0.000   0.000
    1SER      O   13   0.214   0.081  -0.068
    2GLY      N   14   0.212  -0.091   0.076
    2GLY      H   15   0.156  -0.155   0.130
    2GLY     CA   16   0.357  -0.100   0.084
    2GLY    HA1   17   0.396  -0.029   0.026
    2GLY    HA2   18   0.384  -0.085   0.179
    2GLY      C   19   0.405  -0.237   0.038
    2GLY      O   20   0.343  -0.339   0.069
    3PHE      N   21   0.516  -0.240  -0.036
    3PHE      H   22   0.562  -0.154  -0.058
    3PHE     CA   23   0.571  -0.365  -0.085
    3PHE     HA   24   0.511  -0.436  -0.050
    3PHE     CB   25   0.572  -0.368  -0.237
    3PHE    HB1   26   0.623  -0.288  -0.270
    3PHE    HB2   27   0.618  -0.451  -0.267
    3PHE     CG   28   0.436  -0.365  -0.299
    3PHE    CD1   29   0.378  -0.244  -0.336
    3PHE    HD1   30   0.428  -0.159  -0.321
    3PHE    CD2   31   0.366  -0.484  -0.319
    3PHE    HD2   32   0.408  -0.571  -0.293
    3PHE    CE1   33   0.252  -0.242  -0.393
    3PHE    HE1   34   0.211  -0.154  -0.420
    3PHE    CE2   35   0.240  -0.481  -0.377
    3PHE    HE2   36   0.190  -0.567  -0.391
    3PHE     CZ   37   0.182  -0.360  -0.413
    3PHE     HZ   38   0.091  -0.359  -0.455
    3PHE      C   39   0.712  -0.386  -0.033
    3PHE      O   40   0.791  -0.292  -0.026
    4LEU      N   41   0.745  -0.510   0.004
    4LEU      H   42   0.677  -0.583  -0.004
    4LEU     CA   43   0.878  -0.542   0.055
    4LEU     HA   44   0.928  -0.455   0.053
    4LEU     CB   45   0.869  -0.593   0.198
    4LEU    HB1   46   0.814  -0.677   0.197
    4LEU    HB2   47   0.962  -0.615   0.228
    4LEU     CG   48   0.808  -0.498   0.301
    4LEU     HG   49   0.865  -0.416   0.299
    4LEU    CD1   50   0.794  -0.567   0.435
    4LEU   HD11   51   0.754  -0.504   0.502
    4LEU   HD12   52   0.735  -0.648   0.426
    4LEU   HD13   53   0.884  -0.596   0.467
    4LEU    CD2   54   0.660  -0.475   0.271
    4LEU   HD21   55   0.622  -0.413   0.339
    4LEU   HD22   56   0.650  -0.436   0.180
    4LEU   HD23   57   0.611  -0.563   0.275
    4LEU      C   58   0.946  -0.645  -0.032
    4LEU      O   59   0.883  -0.740  -0.079
    5ARG      N   60   1.076  -0.627  -0.055
    5ARG      H   61   1.123  -0.548  -0.015
    5ARG     CA   62   1.153  -0.720  -0.138
    5ARG     HA   63   1.087  -0.791  -0.165
    5ARG     CB   64   1.209  -0.650  -0.260
    5ARG    HB1   65   1.263  -0.572  -0.230
    5ARG    HB2   66   1.268  -0.715  -0.309
    5ARG     CG   67   1.103  -0.601  -0.357
    5ARG    HG1   68   1.048  -0.678  -0.387
    5ARG    HG2   69   1.044  -0.535  -0.309
    5ARG     CD   70   1.164  -0.533  -0.478
    5ARG    HD1   71   1.220  -0.455  -0.449
    5ARG    HD2   72   1.222  -0.599  -0.528
    5ARG     NE   73   1.062  -0.484  -0.570
    5ARG     HE   74   0.966  -0.497  -0.544
    5ARG     CZ   75   1.087  -0.423  -0.686
    5ARG    NH1   76   1.212  -0.403  -0.726
    5ARG   HH11   77   1.288  -0.433  -0.670
    5ARG   HH12   78   1.229  -0.357  -0.813
    5ARG    NH2   79   0.985  -0.382  -0.762
    5ARG   HH21   80   0.891  -0.398  -0.732
    5ARG   HH22   81   1.003  -0.337  -0.849
    5ARG      C   82   1.266  -0.783  -0.058
    5ARG      O   83   1.332  -0.716   0.021
    6ASP      N   84   1.289  -0.912  -0.079
    6ASP      H   85   1.232  -0.962  -0.145
    6ASP     CA   86   1.395  -0.983  -0.009
    6ASP     HA   87   1.439  -0.914   0.049
    6ASP     CB   88   1.339  -1.095   0.077
    6ASP    HB1   89   1.282  -1.154   0.020
    6ASP    HB2   90   1.415  -1.148   0.115
    6ASP     CG   91   1.253  -1.044   0.192
    6ASP    OD1   92   1.296  -0.950   0.263
    6ASP    OD2   93   1.143  -1.098   0.213
    6ASP      C   94   1.497  -1.041  -0.106
    6ASP     O1   95   1.460  -1.092  -0.212
    6ASP     O2   96   1.601  -1.109  -0.053
   1.82425   1.33805   1.35051
