[ moleculetype ]
; Name            nrexcl
Protein_chain_A     3

[ atoms ]
;   nr       type  resnr residue  atom   cgnr     charge       mass  typeB    chargeB      massB
; residue   1 SER rtp SER  q +1.0
     1   opls_287      1    SER      N      1       -0.3    14.0027
     2   opls_290      1    SER     H1      1       0.33      1.008
     3   opls_290      1    SER     H2      1       0.33      1.008
     4   opls_290      1    SER     H3      1       0.33      1.008
     5  opls_293B      1    SER     CA      1       0.25     12.011
     6   opls_140      1    SER     HA      1       0.06      1.008
     7   opls_157      1    SER     CB      2      0.145     12.011
     8   opls_140      1    SER    HB1      2       0.06      1.008
     9   opls_140      1    SER    HB2      2       0.06      1.008
    10   opls_154      1    SER     OG      3     -0.683    15.9994
    11   opls_155      1    SER     HG      3      0.418      1.008
    12   opls_235      1    SER      C      4        0.5     12.011
    13   opls_236      1    SER      O      4       -0.5    15.9994   ; qtot 1
; residue   2 GLY rtp GLY  q  0.0
    14   opls_238      2    GLY      N      5       -0.5    14.0067
    15   opls_241      2    GLY      H      5        0.3      1.008
    16  opls_223B      2    GLY     CA      5       0.08     12.011
    17   opls_140      2    GLY    HA1      5       0.06      1.008
    18   opls_140      2    GLY    HA2      5       0.06      1.008
    19   opls_235      2    GLY      C      6        0.5     12.011
    20   opls_236      2    GLY      O      6       -0.5    15.9994   ; qtot 1
; residue   3 PHE rtp PHE  q  0.0
    21   opls_238      3    PHE      N      7       -0.5    14.0067
    22   opls_241      3    PHE      H      7        0.3      1.008
    23  opls_224B      3    PHE     CA      7       0.14     12.011
    24   opls_140      3    PHE     HA      7       0.06      1.008
    25   opls_149      3    PHE     CB      8     -0.005     12.011
    26   opls_140      3    PHE    HB1      8       0.06      1.008
    27   opls_140      3    PHE    HB2      8       0.06      1.008
    28   opls_145      3    PHE     CG      8     -0.115     12.011
    29   opls_145      3    PHE    CD1      9     -0.115     12.011
    30   opls_146      3    PHE    HD1      9      0.115      1.008
    31   opls_145      3    PHE    CD2     10     -0.115     12.011
    32   opls_146      3    PHE    HD2     10      0.115      1.008
    33   opls_145      3    PHE    CE1     11     -0.115     12.011
    34   opls_146      3    PHE    HE1     11      0.115      1.008
    35   opls_145      3    PHE    CE2     12     -0.115     12.011
    36   opls_146      3    PHE    HE2     12      0.115      1.008
    37   opls_145      3    PHE     CZ     13     -0.115     12.011
    38   opls_146      3    PHE     HZ     13      0.115      1.008
    39   opls_235      3    PHE      C     14        0.5     12.011
    40   opls_236      3    PHE      O     14       -0.5    15.9994   ; qtot 1
; residue   4 LEU rtp LEU  q  0.0
    41   opls_238      4    LEU      N     15       -0.5    14.0067
    42   opls_241      4    LEU      H     15        0.3      1.008
    43  opls_224B      4    LEU     CA     15       0.14     12.011
    44   opls_140      4    LEU     HA     15       0.06      1.008
    45   opls_136      4    LEU     CB     16      -0.12     12.011
    46   opls_140      4    LEU    HB1     16       0.06      1.008
    47   opls_140      4    LEU    HB2     16       0.06      1.008
    48   opls_137      4    LEU     CG     17      -0.06     12.011
    49   opls_140      4    LEU     HG     17       0.06      1.008
    50   opls_135      4    LEU    CD1     18      -0.18     12.011
    51   opls_140      4    LEU   HD11     18       0.06      1.008
    52   opls_140      4    LEU   HD12     18       0.06      1.008
    53   opls_140      4    LEU   HD13     18       0.06      1.008
    54   opls_135      4    LEU    CD2     19      -0.18     12.011
    55   opls_140      4    LEU   HD21     19       0.06      1.008
    56   opls_140      4    LEU   HD22     19       0.06      1.008
    57   opls_140      4    LEU   HD23     19       0.06      1.008
    58   opls_235      4    LEU      C     20        0.5     12.011
    59   opls_236      4    LEU      O     20       -0.5    15.9994   ; qtot 1
; residue   5 ARG rtp ARG  q +1.0
    60   opls_238      5    ARG      N     21       -0.5    14.0067
    61   opls_241      5    ARG      H     21        0.3      1.008
    62  opls_224B      5    ARG     CA     21       0.14     12.011
    63   opls_140      5    ARG     HA     21       0.06      1.008
    64   opls_136      5    ARG     CB     22      -0.12     12.011
    65   opls_140      5    ARG    HB1     22       0.06      1.008
    66   opls_140      5    ARG    HB2     22       0.06      1.008
    67   opls_308      5    ARG     CG     23      -0.05     12.011
    68   opls_140      5    ARG    HG1     23       0.06      1.008
    69   opls_140      5    ARG    HG2     23       0.06      1.008
    70   opls_307      5    ARG     CD     24       0.19     12.011
    71   opls_140      5    ARG    HD1     24       0.06      1.008
    72   opls_140      5    ARG    HD2     24       0.06      1.008
    73   opls_303      5    ARG     NE     25       -0.7    14.0067
    74   opls_304      5    ARG     HE     25       0.44      1.008
    75   opls_302      5    ARG     CZ     25       0.64     12.011
    76   opls_300      5    ARG    NH1     26       -0.8    14.0067
    77   opls_301      5    ARG   HH11     26       0.46      1.008
    78   opls_301      5    ARG   HH12     26       0.46      1.008
    79   opls_300      5    ARG    NH2     27       -0.8    14.0067
    80   opls_301      5    ARG   HH21     27       0.46      1.008
    81   opls_301      5    ARG   HH22     27       0.46      1.008
    82   opls_235      5    ARG      C     28        0.5     12.011
    83   opls_236      5    ARG      O     28       -0.5    15.9994   ; qtot 2
; residue   6 ASP rtp ASP  q -2.0
    84   opls_238      6    ASP      N     29       -0.5    14.0067
    85   opls_241      6    ASP      H     29        0.3      1.008
    86   opls_283      6    ASP     CA     29       0.04     12.011
    87   opls_140      6    ASP     HA     29       0.06      1.008
    88   opls_274      6    ASP     CB     30      -0.22     12.011
    89   opls_140      6    ASP    HB1     30       0.06      1.008
    90   opls_140      6    ASP    HB2     30       0.06      1.008
    91   opls_271      6    ASP     CG     31        0.7     12.011
    92   opls_272      6    ASP    OD1     31       -0.8    15.9994
    93   opls_272      6    ASP    OD2     31       -0.8    15.9994
    94   opls_271      6    ASP      C     32        0.7     12.011
    95   opls_272      6    ASP     O1     32       -0.8    15.9994
    96   opls_272      6    ASP     O2     32       -0.8    15.9994   ; qtot 0

[ bonds ]
;  ai    aj funct            c0            c1            c2            c3
    1     2     1 
    1     3     1 
    1     4     1 
    1     5     1 
    5     6     1 
    5     7     1 
    5    12     1 
    7     8     1 
    7     9     1 
    7    10     1 
   10    11     1 
   12    13     1 
   12    14     1 
   14    15     1 
   14    16     1 
   16    17     1 
   16    18     1 
   16    19     1 
   19    20     1 
   19    21     1 
   21    22     1 
   21    23     1 
   23    24     1 
   23    25     1 
   23    39     1 
   25    26     1 
   25    27     1 
   25    28     1 
   28    29     1 
   28    31     1 
   29    30     1 
   29    33     1 
   31    32     1 
   31    35     1 
   33    34     1 
   33    37     1 
   35    36     1 
   35    37     1 
   37    38     1 
   39    40     1 
   39    41     1 
   41    42     1 
   41    43     1 
   43    44     1 
   43    45     1 
   43    58     1 
   45    46     1 
   45    47     1 
   45    48     1 
   48    49     1 
   48    50     1 
   48    54     1 
   50    51     1 
   50    52     1 
   50    53     1 
   54    55     1 
   54    56     1 
   54    57     1 
   58    59     1 
   58    60     1 
   60    61     1 
   60    62     1 
   62    63     1 
   62    64     1 
   62    82     1 
   64    65     1 
   64    66     1 
   64    67     1 
   67    68     1 
   67    69     1 
   67    70     1 
   70    71     1 
   70    72     1 
   70    73     1 
   73    74     1 
   73    75     1 
   75    76     1 
   75    79     1 
   76    77     1 
   76    78     1 
   79    80     1 
   79    81     1 
   82    83     1 
   82    84     1 
   84    85     1 
   84    86     1 
   86    87     1 
   86    88     1 
   86    94     1 
   88    89     1 
   88    90     1 
   88    91     1 
   91    92     1 
   91    93     1 
   94    95     1 
   94    96     1 

[ pairs ]
;  ai    aj funct            c0            c1            c2            c3
    1     8     1 
    1     9     1 
    1    10     1 
    1    13     1 
    1    14     1 
    2     6     1 
    2     7     1 
    2    12     1 
    3     6     1 
    3     7     1 
    3    12     1 
    4     6     1 
    4     7     1 
    4    12     1 
    5    11     1 
    5    15     1 
    5    16     1 
    6     8     1 
    6     9     1 
    6    10     1 
    6    13     1 
    6    14     1 
    7    13     1 
    7    14     1 
    8    11     1 
    8    12     1 
    9    11     1 
    9    12     1 
   10    12     1 
   12    17     1 
   12    18     1 
   12    19     1 
   13    15     1 
   13    16     1 
   14    20     1 
   14    21     1 
   15    17     1 
   15    18     1 
   15    19     1 
   16    22     1 
   16    23     1 
   17    20     1 
   17    21     1 
   18    20     1 
   18    21     1 
   19    24     1 
   19    25     1 
   19    39     1 
   20    22     1 
   20    23     1 
   21    26     1 
   21    27     1 
   21    28     1 
   21    40     1 
   21    41     1 
   22    24     1 
   22    25     1 
   22    39     1 
   23    29     1 
   23    31     1 
   23    42     1 
   23    43     1 
   24    26     1 
   24    27     1 
   24    28     1 
   24    40     1 
   24    41     1 
   25    30     1 
   25    32     1 
   25    33     1 
   25    35     1 
   25    40     1 
   25    41     1 
   26    29     1 
   26    31     1 
   26    39     1 
   27    29     1 
   27    31     1 
   27    39     1 
   28    34     1 
   28    36     1 
   28    37     1 
   28    39     1 
   29    32     1 
   29    35     1 
   29    38     1 
   30    31     1 
   30    34     1 
   30    37     1 
   31    33     1 
   31    38     1 
   32    36     1 
   32    37     1 
   33    36     1 
   34    35     1 
   34    38     1 
   36    38     1 
   39    44     1 
   39    45     1 
   39    58     1 
   40    42     1 
   40    43     1 
   41    46     1 
   41    47     1 
   41    48     1 
   41    59     1 
   41    60     1 
   42    44     1 
   42    45     1 
   42    58     1 
   43    49     1 
   43    50     1 
   43    54     1 
   43    61     1 
   43    62     1 
   44    46     1 
   44    47     1 
   44    48     1 
   44    59     1 
   44    60     1 
   45    51     1 
   45    52     1 
   45    53     1 
   45    55     1 
   45    56     1 
   45    57     1 
   45    59     1 
   45    60     1 
   46    49     1 
   46    50     1 
   46    54     1 
   46    58     1 
   47    49     1 
   47    50     1 
   47    54     1 
   47    58     1 
   48    58     1 
   49    51     1 
   49    52     1 
   49    53     1 
   49    55     1 
   49    56     1 
   49    57     1 
   50    55     1 
   50    56     1 
   50    57     1 
   51    54     1 
   52    54     1 
   53    54     1 
   58    63     1 
   58    64     1 
   58    82     1 
   59    61     1 
   59    62     1 
   60    65     1 
   60    66     1 
   60    67     1 
   60    83     1 
   60    84     1 
   61    63     1 
   61    64     1 
   61    82     1 
   62    68     1 
   62    69     1 
   62    70     1 
   62    85     1 
   62    86     1 
   63    65     1 
   63    66     1 
   63    67     1 
   63    83     1 
   63    84     1 
   64    71     1 
   64    72     1 
   64    73     1 
   64    83     1 
   64    84     1 
   65    68     1 
   65    69     1 
   65    70     1 
   65    82     1 
   66    68     1 
   66    69     1 
   66    70     1 
   66    82     1 
   67    74     1 
   67    75     1 
   67    82     1 
   68    71     1 
   68    72     1 
   68    73     1 
   69    71     1 
   69    72     1 
   69    73     1 
   70    76     1 
   70    79     1 
   71    74     1 
   71    75     1 
   72    74     1 
   72    75     1 
   73    77     1 
   73    78     1 
   73    80     1 
   73    81     1 
   74    76     1 
   74    79     1 
   76    80     1 
   76    81     1 
   77    79     1 
   78    79     1 
   82    87     1 
   82    88     1 
   82    94     1 
   83    85     1 
   83    86     1 
   84    89     1 
   84    90     1 
   84    91     1 
   84    95     1 
   84    96     1 
   85    87     1 
   85    88     1 
   85    94     1 
   86    92     1 
   86    93     1 
   87    89     1 
   87    90     1 
   87    91     1 
   87    95     1 
   87    96     1 
   88    95     1 
   88    96     1 
   89    92     1 
   89    93     1 
   89    94     1 
   90    92     1 
   90    93     1 
   90    94     1 
   91    94     1 

[ angles ]
;  ai    aj    ak funct            c0            c1            c2            c3
    2     1     3     1 
    2     1     4     1 
    2     1     5     1 
    3     1     4     1 
    3     1     5     1 
    4     1     5     1 
    1     5     6     1 
    1     5     7     1 
    1     5    12     1 
    6     5     7     1 
    6     5    12     1 
    7     5    12     1 
    5     7     8     1 
    5     7     9     1 
    5     7    10     1 
    8     7     9     1 
    8     7    10     1 
    9     7    10     1 
    7    10    11     1 
    5    12    13     1 
    5    12    14     1 
   13    12    14     1 
   12    14    15     1 
   12    14    16     1 
   15    14    16     1 
   14    16    17     1 
   14    16    18     1 
   14    16    19     1 
   17    16    18     1 
   17    16    19     1 
   18    16    19     1 
   16    19    20     1 
   16    19    21     1 
   20    19    21     1 
   19    21    22     1 
   19    21    23     1 
   22    21    23     1 
   21    23    24     1 
   21    23    25     1 
   21    23    39     1 
   24    23    25     1 
   24    23    39     1 
   25    23    39     1 
   23    25    26     1 
   23    25    27     1 
   23    25    28     1 
   26    25    27     1 
   26    25    28     1 
   27    25    28     1 
   25    28    29     1 
   25    28    31     1 
   29    28    31     1 
   28    29    30     1 
   28    29    33     1 
   30    29    33     1 
   28    31    32     1 
   28    31    35     1 
   32    31    35     1 
   29    33    34     1 
   29    33    37     1 
   34    33    37     1 
   31    35    36     1 
   31    35    37     1 
   36    35    37     1 
   33    37    35     1 
   33    37    38     1 
   35    37    38     1 
   23    39    40     1 
   23    39    41     1 
   40    39    41     1 
   39    41    42     1 
   39    41    43     1 
   42    41    43     1 
   41    43    44     1 
   41    43    45     1 
   41    43    58     1 
   44    43    45     1 
   44    43    58     1 
   45    43    58     1 
   43    45    46     1 
   43    45    47     1 
   43    45    48     1 
   46    45    47     1 
   46    45    48     1 
   47    45    48     1 
   45    48    49     1 
   45    48    50     1 
   45    48    54     1 
   49    48    50     1 
   49    48    54     1 
   50    48    54     1 
   48    50    51     1 
   48    50    52     1 
   48    50    53     1 
   51    50    52     1 
   51    50    53     1 
   52    50    53     1 
   48    54    55     1 
   48    54    56     1 
   48    54    57     1 
   55    54    56     1 
   55    54    57     1 
   56    54    57     1 
   43    58    59     1 
   43    58    60     1 
   59    58    60     1 
   58    60    61     1 
   58    60    62     1 
   61    60    62     1 
   60    62    63     1 
   60    62    64     1 
   60    62    82     1 
   63    62    64     1 
   63    62    82     1 
   64    62    82     1 
   62    64    65     1 
   62    64    66     1 
   62    64    67     1 
   65    64    66     1 
   65    64    67     1 
   66    64    67     1 
   64    67    68     1 
   64    67    69     1 
   64    67    70     1 
   68    67    69     1 
   68    67    70     1 
   69    67    70     1 
   67    70    71     1 
   67    70    72     1 
   67    70    73     1 
   71    70    72     1 
   71    70    73     1 
   72    70    73     1 
   70    73    74     1 
   70    73    75     1 
   74    73    75     1 
   73    75    76     1 
   73    75    79     1 
   76    75    79     1 
   75    76    77     1 
   75    76    78     1 
   77    76    78     1 
   75    79    80     1 
   75    79    81     1 
   80    79    81     1 
   62    82    83     1 
   62    82    84     1 
   83    82    84     1 
   82    84    85     1 
   82    84    86     1 
   85    84    86     1 
   84    86    87     1 
   84    86    88     1 
   84    86    94     1 
   87    86    88     1 
   87    86    94     1 
   88    86    94     1 
   86    88    89     1 
   86    88    90     1 
   86    88    91     1 
   89    88    90     1 
   89    88    91     1 
   90    88    91     1 
   88    91    92     1 
   88    91    93     1 
   92    91    93     1 
   86    94    95     1 
   86    94    96     1 
   95    94    96     1 

[ dihedrals ]
;  ai    aj    ak    al funct            c0            c1            c2            c3            c4            c5
    2     1     5     6     3 
    2     1     5     7     3 
    2     1     5    12     3 
    3     1     5     6     3 
    3     1     5     7     3 
    3     1     5    12     3 
    4     1     5     6     3 
    4     1     5     7     3 
    4     1     5    12     3 
    1     5     7    10     3    dih_SER_THR_chi1_N_C_C_O
   12     5     7    10     3    dih_SER_THR_chi1_CO_C_C_O
    1     5     7     8     3 
    1     5     7     9     3 
    6     5     7     8     3 
    6     5     7     9     3 
    6     5     7    10     3 
   12     5     7     8     3 
   12     5     7     9     3 
    1     5    12    13     3 
    1     5    12    14     3 
    6     5    12    13     3 
    6     5    12    14     3 
    7     5    12    13     3 
    7     5    12    14     3 
    5     7    10    11     3    dih_SER_THR_chi2_C_C_OH_HO
    8     7    10    11     3 
    9     7    10    11     3 
    5    12    14    15     3 
    5    12    14    16     3 
   13    12    14    15     3 
   13    12    14    16     3 
   12    14    16    17     3 
   12    14    16    18     3 
   12    14    16    19     3 
   15    14    16    17     3 
   15    14    16    18     3 
   15    14    16    19     3 
   14    16    19    20     3 
   14    16    19    21     3 
   17    16    19    20     3 
   17    16    19    21     3 
   18    16    19    20     3 
   18    16    19    21     3 
   16    19    21    22     3 
   16    19    21    23     3 
   20    19    21    22     3 
   20    19    21    23     3 
   19    21    23    24     3 
   19    21    23    25     3 
   19    21    23    39     3 
   22    21    23    24     3 
   22    21    23    25     3 
   22    21    23    39     3 
   21    23    25    26     3 
   21    23    25    27     3 
   21    23    25    28     3 
   24    23    25    26     3 
   24    23    25    27     3 
   24    23    25    28     3 
   39    23    25    26     3 
   39    23    25    27     3 
   39    23    25    28     3 
   21    23    39    40     3 
   21    23    39    41     3 
   24    23    39    40     3 
   24    23    39    41     3 
   25    23    39    40     3 
   25    23    39    41     3 
   23    25    28    29     3 
   23    25    28    31     3 
   26    25    28    29     3 
   26    25    28    31     3 
   27    25    28    29     3 
   27    25    28    31     3 
   25    28    29    30     3 
   25    28    29    33     3 
   31    28    29    30     3 
   31    28    29    33     3 
   25    28    31    32     3 
   25    28    31    35     3 
   29    28    31    32     3 
   29    28    31    35     3 
   28    29    33    34     3 
   28    29    33    37     3 
   30    29    33    34     3 
   30    29    33    37     3 
   28    31    35    36     3 
   28    31    35    37     3 
   32    31    35    36     3 
   32    31    35    37     3 
   29    33    37    35     3 
   29    33    37    38     3 
   34    33    37    35     3 
   34    33    37    38     3 
   31    35    37    33     3 
   31    35    37    38     3 
   36    35    37    33     3 
   36    35    37    38     3 
   23    39    41    42     3 
   23    39    41    43     3 
   40    39    41    42     3 
   40    39    41    43     3 
   39    41    43    44     3 
   39    41    43    45     3 
   39    41    43    58     3 
   42    41    43    44     3 
   42    41    43    45     3 
   42    41    43    58     3 
   41    43    45    48     3    dih_LEU_chi1_N_C_C_C
   58    43    45    48     3    dih_LEU_chi1_C_C_C_CO
   41    43    45    46     3 
   41    43    45    47     3 
   44    43    45    46     3 
   44    43    45    47     3 
   44    43    45    48     3 
   58    43    45    46     3 
   58    43    45    47     3 
   41    43    58    59     3 
   41    43    58    60     3 
   44    43    58    59     3 
   44    43    58    60     3 
   45    43    58    59     3 
   45    43    58    60     3 
   43    45    48    49     3 
   43    45    48    50     3 
   43    45    48    54     3 
   46    45    48    49     3 
   46    45    48    50     3 
   46    45    48    54     3 
   47    45    48    49     3 
   47    45    48    50     3 
   47    45    48    54     3 
   45    48    50    51     3 
   45    48    50    52     3 
   45    48    50    53     3 
   49    48    50    51     3 
   49    48    50    52     3 
   49    48    50    53     3 
   54    48    50    51     3 
   54    48    50    52     3 
   54    48    50    53     3 
   45    48    54    55     3 
   45    48    54    56     3 
   45    48    54    57     3 
   49    48    54    55     3 
   49    48    54    56     3 
   49    48    54    57     3 
   50    48    54    55     3 
   50    48    54    56     3 
   50    48    54    57     3 
   43    58    60    61     3 
   43    58    60    62     3 
   59    58    60    61     3 
   59    58    60    62     3 
   58    60    62    63     3 
   58    60    62    64     3 
   58    60    62    82     3 
   61    60    62    63     3 
   61    60    62    64     3 
   61    60    62    82     3 
   60    62    64    67     3    dih_ARG_chi1_N_C_C_C
   82    62    64    67     3    dih_ARG_chi1_C_C_C_CO
   60    62    64    65     3 
   60    62    64    66     3 
   63    62    64    65     3 
   63    62    64    66     3 
   63    62    64    67     3 
   82    62    64    65     3 
   82    62    64    66     3 
   60    62    82    83     3 
   60    62    82    84     3 
   63    62    82    83     3 
   63    62    82    84     3 
   64    62    82    83     3 
   64    62    82    84     3 
   62    64    67    68     3 
   62    64    67    69     3 
   62    64    67    70     3 
   65    64    67    68     3 
   65    64    67    69     3 
   65    64    67    70     3 
   66    64    67    68     3 
   66    64    67    69     3 
   66    64    67    70     3 
   64    67    70    71     3 
   64    67    70    72     3 
   64    67    70    73     3 
   68    67    70    71     3 
   68    67    70    72     3 
   68    67    70    73     3 
   69    67    70    71     3 
   69    67    70    72     3 
   69    67    70    73     3 
   67    70    73    74     3 
   67    70    73    75     3 
   71    70    73    74     3 
   71    70    73    75     3 
   72    70    73    74     3 
   72    70    73    75     3 
   70    73    75    76     3 
   70    73    75    79     3 
   74    73    75    76     3 
   74    73    75    79     3 
   73    75    76    77     3 
   73    75    76    78     3 
   79    75    76    77     3 
   79    75    76    78     3 
   73    75    79    80     3 
   73    75    79    81     3 
   76    75    79    80     3 
   76    75    79    81     3 
   62    82    84    85     3 
   62    82    84    86     3 
   83    82    84    85     3 
   83    82    84    86     3 
   82    84    86    87     3 
   82    84    86    88     3 
   82    84    86    94     3 
   85    84    86    87     3 
   85    84    86    88     3 
   85    84    86    94     3 
   84    86    88    91     3    dih_ASP_chi1_N_C_C_C
   94    86    88    91     3    dih_ASP_chi1_C_C_C_CO
   84    86    88    89     3 
   84    86    88    90     3 
   87    86    88    89     3 
   87    86    88    90     3 
   87    86    88    91     3 
   94    86    88    89     3 
   94    86    88    90     3 
   84    86    94    95     3 
   84    86    94    96     3 
   87    86    94    95     3 
   87    86    94    96     3 
   88    86    94    95     3 
   88    86    94    96     3 
   86    88    91    92     3 
   86    88    91    93     3 
   89    88    91    92     3 
   89    88    91    93     3 
   90    88    91    92     3 
   90    88    91    93     3 

[ dihedrals ]
;  ai    aj    ak    al funct            c0            c1            c2            c3
    5    14    12    13     1    improper_O_C_X_Y
   12    16    14    15     1    improper_Z_N_X_Y
   16    21    19    20     1    improper_O_C_X_Y
   19    23    21    22     1    improper_Z_N_X_Y
   23    41    39    40     1    improper_O_C_X_Y
   25    28    31    29     1    improper_Z_CA_X_Y
   28    33    29    30     1    improper_Z_CA_X_Y
   28    35    31    32     1    improper_Z_CA_X_Y
   29    37    33    34     1    improper_Z_CA_X_Y
   31    37    35    36     1    improper_Z_CA_X_Y
   33    35    37    38     1    improper_Z_CA_X_Y
   39    43    41    42     1    improper_Z_N_X_Y
   43    60    58    59     1    improper_O_C_X_Y
   58    62    60    61     1    improper_Z_N_X_Y
   62    84    82    83     1    improper_O_C_X_Y
   70    75    73    74     1    improper_Z_N_X_Y
   73    76    75    79     1    improper_O_C_X_Y
   75    77    76    78     1    improper_Z_N_X_Y
   75    80    79    81     1    improper_Z_N_X_Y
   82    86    84    85     1    improper_Z_N_X_Y
   86    95    94    96     1    improper_O_C_X_Y
   88    92    91    93     1    improper_O_C_X_Y

; Include Position restraint file
#ifdef POSRES
#include "posre_Protein_chain_A.itp"
#endif
