; DPP lipid moleculetype — OPLS-AA membrane forcefield
; Generated from aminoacids.rtp by core/lipid_itp_builder.py
; 50 atoms  49 bonds  57 angles  53 proper dihedrals  53 pairs  2 impropers
; Forcefield atom types and bonded parameters are looked up via forcefield.itp

[ moleculetype ]
; Name    nrexcl
DPP           3

[ atoms ]
;   nr       type  resnr residue  atom   cgnr     charge       mass
     1      opls_905     1  DPP     C1       1       0.250     12.0110
     2      opls_905     1  DPP     C2       2       0.250     12.0110
     3      opls_905     1  DPP     C3       3       0.250     12.0110
     4      opls_288     1  DPP     N4       4       0.000     14.0067
     5      opls_908     1  DPP     C5       5       0.250     12.0110
     6      opls_136     1  DPP     C6       6       0.000     12.0110
     7      opls_442     1  DPP     O7       7      -0.360     15.9994
     8      opls_440     1  DPP     P8       7       0.990     30.9738
     9      opls_441     1  DPP     O9       7      -0.635     15.9994
    10      opls_441     1  DPP     O10      7      -0.635     15.9994
    11      opls_442     1  DPP     O11      7      -0.360     15.9994
    12      opls_136     1  DPP     C12      8       0.000     12.0110
    13      opls_491     1  DPP     C13      9       0.160     12.0110
    14      opls_467     1  DPP     O14     10      -0.360     15.9994
    15      opls_465     1  DPP     C15     10       0.580     12.0110
    16      opls_466     1  DPP     O16     10      -0.380     15.9994
    17      opls_136     1  DPP     C17     11       0.000     12.0110
    18      opls_136     1  DPP     C18     12       0.000     12.0110
    19      opls_136     1  DPP     C19     13       0.000     12.0110
    20      opls_136     1  DPP     C20     14       0.000     12.0110
    21      opls_136     1  DPP     C21     15       0.000     12.0110
    22      opls_136     1  DPP     C22     16       0.000     12.0110
    23      opls_136     1  DPP     C23     17       0.000     12.0110
    24      opls_136     1  DPP     C24     18       0.000     12.0110
    25      opls_136     1  DPP     C25     19       0.000     12.0110
    26      opls_136     1  DPP     C26     20       0.000     12.0110
    27      opls_136     1  DPP     C27     21       0.000     12.0110
    28      opls_136     1  DPP     C28     22       0.000     12.0110
    29      opls_136     1  DPP     C29     23       0.000     12.0110
    30      opls_136     1  DPP     C30     24       0.000     12.0110
    31      opls_135     1  DPP     C31     25       0.000     12.0110
    32      opls_490     1  DPP     C32     26       0.160     12.0110
    33      opls_467     1  DPP     O33     27      -0.360     15.9994
    34      opls_465     1  DPP     C34     27       0.580     12.0110
    35      opls_466     1  DPP     O35     27      -0.380     15.9994
    36      opls_136     1  DPP     C36     28       0.000     12.0110
    37      opls_136     1  DPP     C37     29       0.000     12.0110
    38      opls_136     1  DPP     C38     30       0.000     12.0110
    39      opls_136     1  DPP     C39     31       0.000     12.0110
    40      opls_136     1  DPP     C40     32       0.000     12.0110
    41      opls_136     1  DPP     C41     33       0.000     12.0110
    42      opls_136     1  DPP     C42     34       0.000     12.0110
    43      opls_136     1  DPP     C43     35       0.000     12.0110
    44      opls_136     1  DPP     C44     36       0.000     12.0110
    45      opls_136     1  DPP     C45     37       0.000     12.0110
    46      opls_136     1  DPP     C46     38       0.000     12.0110
    47      opls_136     1  DPP     C47     39       0.000     12.0110
    48      opls_136     1  DPP     C48     40       0.000     12.0110
    49      opls_136     1  DPP     C49     41       0.000     12.0110
    50      opls_135     1  DPP     C50     42       0.000     12.0110

[ bonds ]
;  ai    aj funct
     1      4     1
     2      4     1
     3      4     1
     4      5     1
     5      6     1
     6      7     1
     7      8     1
     8      9     1
     8     10     1
     8     11     1
    11     12     1
    12     13     1
    13     14     1
    13     32     1
    14     15     1
    15     16     1
    15     17     1
    17     18     1
    18     19     1
    19     20     1
    20     21     1
    21     22     1
    22     23     1
    23     24     1
    24     25     1
    25     26     1
    26     27     1
    27     28     1
    28     29     1
    29     30     1
    30     31     1
    32     33     1
    33     34     1
    34     35     1
    34     36     1
    36     37     1
    37     38     1
    38     39     1
    39     40     1
    40     41     1
    41     42     1
    42     43     1
    43     44     1
    44     45     1
    45     46     1
    46     47     1
    47     48     1
    48     49     1
    49     50     1

[ pairs ]
;  ai    aj funct
     1      6     1
     2      6     1
     3      6     1
     4      7     1
     5      8     1
     6      9     1
     6     10     1
     6     11     1
     7     12     1
     8     13     1
     9     12     1
    10     12     1
    11     14     1
    11     32     1
    12     15     1
    12     33     1
    13     16     1
    13     17     1
    13     34     1
    14     18     1
    14     33     1
    15     19     1
    15     32     1
    16     18     1
    17     20     1
    18     21     1
    19     22     1
    20     23     1
    21     24     1
    22     25     1
    23     26     1
    24     27     1
    25     28     1
    26     29     1
    27     30     1
    28     31     1
    32     35     1
    32     36     1
    33     37     1
    34     38     1
    35     37     1
    36     39     1
    37     40     1
    38     41     1
    39     42     1
    40     43     1
    41     44     1
    42     45     1
    43     46     1
    44     47     1
    45     48     1
    46     49     1
    47     50     1

[ angles ]
;  ai    aj    ak funct
     1      4      2     1
     1      4      3     1
     1      4      5     1
     2      4      3     1
     2      4      5     1
     3      4      5     1
     4      5      6     1
     5      6      7     1
     6      7      8     1
     7      8      9     1
     7      8     10     1
     7      8     11     1
     8     11     12     1
     9      8     10     1
     9      8     11     1
    10      8     11     1
    11     12     13     1
    12     13     14     1
    12     13     32     1
    13     14     15     1
    13     32     33     1
    14     13     32     1
    14     15     16     1
    14     15     17     1
    15     17     18     1
    16     15     17     1
    17     18     19     1
    18     19     20     1
    19     20     21     1
    20     21     22     1
    21     22     23     1
    22     23     24     1
    23     24     25     1
    24     25     26     1
    25     26     27     1
    26     27     28     1
    27     28     29     1
    28     29     30     1
    29     30     31     1
    32     33     34     1
    33     34     35     1
    33     34     36     1
    34     36     37     1
    35     34     36     1
    36     37     38     1
    37     38     39     1
    38     39     40     1
    39     40     41     1
    40     41     42     1
    41     42     43     1
    42     43     44     1
    43     44     45     1
    44     45     46     1
    45     46     47     1
    46     47     48     1
    47     48     49     1
    48     49     50     1

[ dihedrals ]
; proper dihedrals — func 3 (Ryckaert-Bellemans, OPLS-AA)
;  ai    aj    ak    al funct
     1      4      5      6     3
     2      4      5      6     3
     3      4      5      6     3
     4      5      6      7     3
     5      6      7      8     3
     6      7      8      9     3
     6      7      8     10     3
     6      7      8     11     3
     7      8     11     12     3
     8     11     12     13     3
     9      8     11     12     3
    10      8     11     12     3
    11     12     13     14     3
    11     12     13     32     3
    12     13     14     15     3
    12     13     32     33     3
    13     14     15     16     3
    13     14     15     17     3
    13     32     33     34     3
    14     13     32     33     3
    14     15     17     18     3
    15     17     18     19     3
    16     15     17     18     3
    17     18     19     20     3
    18     19     20     21     3
    19     20     21     22     3
    20     21     22     23     3
    21     22     23     24     3
    22     23     24     25     3
    23     24     25     26     3
    24     25     26     27     3
    25     26     27     28     3
    26     27     28     29     3
    27     28     29     30     3
    28     29     30     31     3
    32     13     14     15     3
    32     33     34     35     3
    32     33     34     36     3
    33     34     36     37     3
    34     36     37     38     3
    35     34     36     37     3
    36     37     38     39     3
    37     38     39     40     3
    38     39     40     41     3
    39     40     41     42     3
    40     41     42     43     3
    41     42     43     44     3
    42     43     44     45     3
    43     44     45     46     3
    44     45     46     47     3
    45     46     47     48     3
    46     47     48     49     3
    47     48     49     50     3

[ dihedrals ]
; improper dihedrals — func 1
;  ai    aj    ak    al funct       dih_type
    14     17     15     16     1    improper_O_C_X_Y
    33     36     34     35     1    improper_O_C_X_Y
